19.0 0.000 0.000 0.000 19.0 0.000 0.000 0.000 19.0
19.0 0.000 0.000 0.000 19.0 0.000 0.000 0.000 19.0
19.0 0.000 0.000 0.000 19.0 0.000 0.000 0.000 19.0
19.0 0.000 0.000 0.000 19.0 0.000 0.000 0.000 19.0
19.0 0.000 0.000 0.000 19.0 0.000 0.000 0.000 19.0
