10.048037	1.469975	7.153266	5.299197	10.634571	6.095651	7.480815	2.122481	14.391055	17.583794	14.802290	13.102577	5.426914	18.524926	14.815558
11.915554	13.612078	2.548096	17.820188	1.415682	2.236874	11.172378	9.450480	13.614069	4.993749	17.971505	4.470009	16.986298	3.912384	0.062496
3.247382	11.952403	14.820682	5.189869	5.269045	3.797683	17.666037	7.853442	12.280662	10.199547	5.408681	1.701160	15.543296	14.326584	10.590371
0.969790	6.346685	14.163459	16.869778	3.130810	9.594338	12.379344	18.727427	17.314007	11.053580	7.100724	11.016206	10.889154	11.302812	5.025296
3.169825	10.841527	8.620489	6.100064	10.206082	14.840668	17.213671	3.545943	16.803720	11.361830	15.825936	2.952419	13.374860	9.194712	1.321815
