-38520.690149
-38520.723136
-38520.844428
-38521.052656
-38521.345388
