-0.828377	0.484158	-1.087382	0.192519	0.066391	-0.705929	-0.162941	0.602139	-0.108314	0.951094	0.243625	1.121261	-0.965623	-0.146936	1.089227	0.825232	-0.678470	-0.148323	-0.759267	0.741232	0.968452	-0.615860	1.318081	-0.571513	0.314337	-1.672188	0.248339	-0.502253	0.720348	-0.942732	-0.672128	-0.003001	-0.171357	-0.080976	0.544325	-0.858259	0.852088	-0.291424	0.646774	0.384787	0.081258	0.628132	-0.285501	0.546604	0.148222	0.742885	0.931937	-0.389666	-0.672994	0.671295	0.105706	-0.063627	-0.583178	0.912733	-0.510173	0.461111	-1.752798	1.041173	1.010257	-0.721154	0.031505	-0.342435	-0.145865	0.642309	-0.844993	1.150328	-1.240589	0.372559	0.332778	0.487584	1.079849	0.052866	0.594595	0.056975	0.485832	-0.986902	-0.310463	0.185274	-1.163239	-0.748984	-0.594250	0.478153	-0.514502	1.598594	-0.258261	-0.497123	0.164791	-0.279310	-1.028000	-0.175043	-0.142756	0.403269	2.337341	0.440746	-2.148218	-0.054526	-1.437424	-1.495970	-0.862533	1.327260	0.150122	0.632567	-0.012398	1.570150	1.504426	-0.813007	1.200279	0.150553	0.640786	0.890145	-1.269513	-2.060776	0.336948	-0.592022	-0.827532	0.742154	-1.695847	-0.087656	0.269124	1.704402	0.258192	0.105261	-2.632820	-1.901451	-1.232466	0.039383	1.046475	1.056988	0.206854	-0.673484	0.103656	-0.472157	0.649563	0.377383	-1.948549	-0.538356	-1.522028	0.934853	0.178044	-0.884447	1.748291	-2.108814	-0.252844	0.644559	0.880715	-1.482136	-1.310000	-0.525017	-0.884951	-0.330230	1.533603	-0.059398	-1.928910	-1.897284	0.541789	1.293942	0.992529	0.946929	1.149878	-0.596565	0.330516	1.369229	0.623083	1.095981	0.106284	-1.215171	-0.724375	0.315244	0.606388	1.260856	-0.959644	-2.073115	-0.052177	1.021919	0.042840	0.307296	1.366464	-0.985551	-1.212335	1.154631	0.737539	-2.289750	-0.707004	1.998333	0.326074	-0.436363	-0.097883	0.636212	-2.241684	0.243166	-0.778475	1.498340	2.133105	-1.407884	-1.042713	-0.315375	1.730253	-0.377908	-1.773152	0.299560	-1.557108	-0.198430	-1.308218	-0.131671	0.811845	-0.181383	2.028919	0.821523	-0.887059	0.377046	0.841883	1.147961	0.736919	-0.568890	-0.407787	1.440779	1.250263	-1.572497	-0.511933	-1.378271	0.974272	0.306267	0.194778	1.520252	-0.107650	-0.917421	1.921330	0.826162	0.642266	1.235099	0.885426	-1.519878	0.603599	-0.006102	0.214953	0.684057	-1.885376	-0.124888	-1.911356	-0.556425	2.164593	-0.547299	-0.492853	-1.384576	1.011906	0.787234	-0.401929	-0.114889	-0.897164	0.337856	0.699016	-1.290470	0.611011	1.136479	1.628128	1.255251	-0.738270	-1.465979	1.018990	-0.662459	-1.158444	2.014468	1.107451	-0.156783	-0.159459	-0.838928	-1.936312	1.095197	1.479255	-0.313274	-0.248072	-1.627322	0.013395	0.025895	-1.328834	0.894565	-0.331328	0.488473	-2.456463	1.313144	-1.086888	1.626121	2.024004	-1.287719	-0.291867	0.518708	1.774225	0.784511	-0.625775	1.186526	-0.428496	-0.734178	-1.801416	-0.281725	-1.690479	-0.474715	-0.110699	0.799346	-1.781373	-1.304244	1.191874	0.294971	0.947819	1.166686	-1.126580	0.340685	2.297523	0.798096	0.534548	0.970275	0.186133	-2.278873	-0.042137	1.848961	-0.014888	0.842422	-1.724815	-1.763266	-0.291179	0.065337	2.210417	-0.861540	1.430339	0.249669	0.652410	-0.910191	-0.046675	-0.391489	-0.921275	1.937141	-1.117330	0.446366	-1.259832	-1.014559	2.083598	-1.145782	-1.359676	1.983917	0.014398	-0.222324	-0.071799	-2.264147	-0.410053	-1.802683	0.016687	1.966060	0.753859	0.665366	0.468002	-0.921966	2.224158	-0.547723	-1.224674	1.725560	-1.017664	-1.306378	0.446748	-1.691701	1.183415	0.682389
-0.779759	0.445099	-1.145347	0.100805	0.182612	-0.739939	-0.170406	0.612291	-0.089819	0.938561	0.184178	1.208310	-1.017011	-0.167676	1.031271	0.863081	-0.636001	-0.136453	-0.763729	0.627321	0.967523	-0.597381	1.233009	-0.582140	0.362089	-1.696533	0.149914	-0.467010	0.731300	-0.934905	-0.689615	-0.009843	-0.209204	-0.056720	0.566311	-0.899027	0.797021	-0.312391	0.679051	0.470470	0.060200	0.631085	-0.206849	0.520665	0.106309	0.749882	0.915603	-0.401170	-0.665947	0.632509	0.091881	-0.033724	-0.557069	0.907470	-0.572365	0.395634	-1.799625	1.044061	1.021771	-0.743719	-0.016823	-0.334667	-0.147464	0.613995	-0.878283	1.193125	-1.225897	0.347752	0.354012	0.564848	1.044988	-0.028739	0.677407	0.042986	0.471275	-0.976642	-0.229852	0.160741	-1.199216	-0.764391	-0.569828	0.477598	-0.507414	1.576571	-0.261903	-0.436990	0.137535	-0.320133	-1.006627	-0.218862	-0.154104	0.401983	2.371817	0.423239	-2.124092	-0.051817	-1.436524	-1.522002	-0.874209	1.298934	0.144464	0.625866	0.003929	1.575515	1.538366	-0.788244	1.209650	0.154417	0.643885	0.872908	-1.259453	-2.086707	0.324282	-0.593953	-0.836925	0.728659	-1.680795	-0.077446	0.256580	1.737123	0.253190	0.107199	-2.644270	-1.888270	-1.214470	0.030463	1.025681	1.057226	0.192652	-0.687073	0.112080	-0.486682	0.624667	0.381738	-1.856986	-0.541202	-1.514385	0.934050	0.177914	-0.900431	1.767083	-2.167269	-0.256097	0.680160	0.869293	-1.471678	-1.303963	-0.524349	-0.882422	-0.326523	1.560851	-0.058828	-1.917200	-1.941582	0.558738	1.316557	0.967866	0.921753	1.133818	-0.585563	0.322094	1.329894	0.593712	1.102399	0.095918	-1.178720	-0.682436	0.279758	0.604180	1.256645	-0.976192	-2.032440	-0.039831	1.002956	0.043672	0.318805	1.393751	-0.991310	-1.216301	1.166657	0.738149	-2.310581	-0.702456	2.012872	0.325807	-0.432160	-0.086960	0.645254	-2.247095	0.239982	-0.777769	1.490894	2.129505	-1.400694	-1.039991	-0.318144	1.816900	-0.379450	-1.772414	0.295521	-1.554033	-0.204341	-1.250518	-0.129460	0.808443	-0.169547	2.039121	0.795585	-0.881303	0.375356	0.856596	1.127040	0.715423	-0.583018	-0.394664	1.468223	1.244344	-1.577648	-0.498225	-1.427321	1.002165	0.323244	0.175024	1.521229	-0.097008	-0.927684	1.941952	0.833664	0.649191	1.236257	0.888980	-1.529130	0.605124	0.002746	0.223565	0.714040	-1.951757	-0.127885	-1.897601	-0.551319	2.133405	-0.534430	-0.479574	-1.398363	1.048290	0.791722	-0.400598	-0.116867	-0.895877	0.345735	0.709276	-1.287183	0.601458	1.122049	1.626816	1.236232	-0.726686	-1.436641	1.016428	-0.664555	-1.150772	2.041330	1.113892	-0.158831	-0.154401	-0.834143	-1.937179	1.081295	1.482620	-0.312037	-0.237117	-1.600688	0.015051	-0.001168	-1.348862	0.897986	-0.329328	0.483127	-2.450748	1.308636	-1.082574	1.626393	2.007272	-1.300699	-0.271598	0.502077	1.757301	0.769791	-0.568671	1.108728	-0.396373	-0.708977	-1.816702	-0.291771	-1.695291	-0.477462	-0.095602	0.783120	-1.740188	-1.269698	1.216657	0.325676	0.945380	1.183436	-1.114058	0.353520	2.318816	0.804525	0.549099	0.967627	0.195919	-2.295431	-0.032248	1.765438	-0.020556	0.812515	-1.707332	-1.751067	-0.301250	0.071299	2.243609	-0.847383	1.390285	0.234669	0.652988	-0.871245	-0.020796	-0.385263	-0.936865	1.959300	-1.087669	0.440381	-1.232288	-1.005419	2.050073	-1.126384	-1.350440	1.983364	0.004144	-0.210827	-0.061772	-2.273020	-0.423101	-1.785983	0.025018	1.983212	0.773737	0.666536	0.472772	-0.906708	2.235600	-0.536335	-1.215305	1.728444	-1.029927	-1.329432	0.457289	-1.669461	1.179384	0.669296
-0.725226	0.403213	-1.197067	0.004913	0.303013	-0.770865	-0.179521	0.617310	-0.071056	0.920093	0.123920	1.284288	-1.064872	-0.186560	0.969466	0.896726	-0.589031	-0.122589	-0.765841	0.518376	0.963924	-0.575978	1.141755	-0.589357	0.410464	-1.712289	0.041704	-0.429096	0.738917	-0.925061	-0.704352	-0.016518	-0.244150	-0.031085	0.584329	-0.933596	0.735468	-0.330284	0.708594	0.550695	0.040196	0.634155	-0.126473	0.490925	0.062220	0.750673	0.894966	-0.410538	-0.653420	0.589662	0.078370	-0.001109	-0.526061	0.899342	-0.630240	0.329448	-1.838638	1.042095	1.028910	-0.761803	-0.064123	-0.322161	-0.147418	0.582284	-0.908281	1.229901	-1.204662	0.321493	0.375037	0.636613	1.001194	-0.112774	0.755600	0.032397	0.457891	-0.960741	-0.141855	0.132270	-1.229347	-0.776140	-0.541460	0.474755	-0.502115	1.547402	-0.264153	-0.374533	0.109114	-0.362908	-0.980121	-0.262020	-0.164873	0.400206	2.400156	0.404114	-2.093445	-0.048153	-1.432173	-1.544713	-0.884542	1.269031	0.138820	0.618272	0.019964	1.578593	1.570913	-0.761802	1.217417	0.158121	0.646065	0.854329	-1.247110	-2.106576	0.310340	-0.594771	-0.843983	0.714481	-1.662516	-0.066848	0.244440	1.764167	0.248325	0.109155	-2.652009	-1.869367	-1.192992	0.021665	1.002909	1.055762	0.178091	-0.700961	0.120140	-0.500419	0.596609	0.384181	-1.754423	-0.542469	-1.501363	0.931104	0.177242	-0.915056	1.783127	-2.217220	-0.258333	0.714021	0.855285	-1.457135	-1.294552	-0.522440	-0.878676	-0.322117	1.584735	-0.058582	-1.901835	-1.979766	0.574232	1.335606	0.940152	0.893789	1.115084	-0.572411	0.312956	1.287398	0.562502	1.106632	0.084893	-1.141157	-0.639188	0.243699	0.600980	1.250190	-0.991446	-1.986534	-0.027812	0.981500	0.043333	0.330360	1.419121	-0.995296	-1.218391	1.176246	0.737423	-2.327170	-0.696983	2.023176	0.324452	-0.427579	-0.075271	0.652739	-2.247043	0.237242	-0.775912	1.482460	2.123533	-1.391969	-1.036022	-0.320281	1.896014	-0.379678	-1.766932	0.291020	-1.547360	-0.211332	-1.189573	-0.126959	0.803400	-0.157358	2.045830	0.765691	-0.872350	0.372150	0.868271	1.103075	0.690755	-0.595653	-0.380966	1.492155	1.236716	-1.580730	-0.483702	-1.470815	1.025784	0.339209	0.154099	1.519746	-0.085222	-0.935626	1.957762	0.839488	0.655449	1.233590	0.888830	-1.534364	0.604417	0.011485	0.231207	0.740696	-2.008591	-0.130389	-1.878643	-0.544243	2.096258	-0.519849	-0.465211	-1.409256	1.082203	0.795707	-0.400458	-0.119258	-0.895905	0.353642	0.718798	-1.281685	0.590654	1.104951	1.621867	1.213259	-0.712766	-1.403237	1.011250	-0.664829	-1.140357	2.062909	1.117692	-0.160718	-0.149000	-0.827876	-1.933048	1.065244	1.483334	-0.309739	-0.225809	-1.572153	0.017266	-0.026219	-1.366999	0.899928	-0.327011	0.476445	-2.440028	1.301271	-1.076438	1.623871	1.987527	-1.311947	-0.250650	0.484203	1.737307	0.753966	-0.506792	1.024324	-0.362023	-0.682277	-1.829223	-0.301386	-1.698049	-0.479746	-0.080395	0.763904	-1.691832	-1.230626	1.237059	0.354678	0.941188	1.197050	-1.099520	0.365521	2.335366	0.809185	0.562469	0.962756	0.205499	-2.308522	-0.022275	1.673259	-0.026262	0.780424	-1.685716	-1.734596	-0.310835	0.077438	2.270181	-0.831424	1.346213	0.217378	0.652421	-0.830166	0.005856	-0.378125	-0.950051	1.976405	-1.054980	0.433325	-1.201411	-0.994522	2.012836	-1.103927	-1.338549	1.978815	-0.005848	-0.198935	-0.050886	-2.279014	-0.435645	-1.765751	0.033017	1.995413	0.791606	0.665857	0.476822	-0.890279	2.244359	-0.523611	-1.203059	1.726145	-1.040126	-1.350529	0.465848	-1.643586	1.171859	0.654269
-0.663179	0.358379	-1.243172	-0.095193	0.427972	-0.799017	-0.190401	0.617009	-0.051449	0.894624	0.062556	1.349621	-1.109324	-0.203451	0.904408	0.926622	-0.537386	-0.106890	-0.765477	0.414522	0.956224	-0.551791	1.043510	-0.593417	0.459831	-1.719722	-0.077711	-0.388131	0.742453	-0.912864	-0.716832	-0.023616	-0.276474	-0.004317	0.598480	-0.962412	0.666081	-0.345679	0.736220	0.625925	0.021279	0.637094	-0.044593	0.457289	0.016669	0.744529	0.869963	-0.418501	-0.635269	0.542308	0.065224	0.033924	-0.490103	0.887572	-0.683407	0.262972	-1.868788	1.034961	1.031475	-0.775606	-0.110817	-0.304762	-0.145336	0.546803	-0.934639	1.260466	-1.177129	0.293007	0.396086	0.704130	0.947481	-0.199566	0.828848	0.024956	0.445985	-0.939100	-0.046243	0.099393	-1.253880	-0.784537	-0.509035	0.469914	-0.498542	1.510413	-0.265447	-0.308581	0.079132	-0.407056	-0.948302	-0.303710	-0.175075	0.397972	2.422593	0.383144	-2.054986	-0.043314	-1.424214	-1.563894	-0.893429	1.237611	0.133207	0.609752	0.035657	1.579042	1.601658	-0.733763	1.223377	0.161587	0.647012	0.834093	-1.232103	-2.120603	0.295216	-0.594518	-0.848491	0.699719	-1.640961	-0.055872	0.232788	1.785700	0.243638	0.111105	-2.655710	-1.844126	-1.167671	0.012985	0.977947	1.052487	0.163109	-0.714537	0.127786	-0.513022	0.564733	0.384521	-1.638921	-0.541906	-1.482239	0.925687	0.175990	-0.928054	1.795876	-2.259178	-0.259558	0.746119	0.838253	-1.437704	-1.281027	-0.519517	-0.873911	-0.317203	1.605267	-0.058668	-1.883007	-2.012000	0.588273	1.351275	0.909493	0.863165	1.093765	-0.556689	0.302840	1.241103	0.529178	1.108168	0.073145	-1.101805	-0.594266	0.206879	0.597052	1.242066	-1.005640	-1.933560	-0.016128	0.956416	0.041659	0.341721	1.441489	-0.997258	-1.218351	1.183150	0.735355	-2.339387	-0.690588	2.028901	0.321971	-0.422592	-0.062824	0.658517	-2.241014	0.234978	-0.773112	1.473370	2.114161	-1.381113	-1.030338	-0.321703	1.966570	-0.378416	-1.756486	0.286048	-1.536961	-0.219334	-1.124548	-0.123955	0.796332	-0.144836	2.047933	0.731480	-0.859874	0.367294	0.876844	1.075805	0.662509	-0.606562	-0.366726	1.512059	1.227589	-1.581894	-0.468447	-1.508688	1.045203	0.354142	0.132062	1.515474	-0.072368	-0.941172	1.968682	0.843550	0.660834	1.226609	0.884500	-1.534919	0.601024	0.020109	0.238022	0.764244	-2.056433	-0.132320	-1.854037	-0.535007	2.051438	-0.503179	-0.449249	-1.417259	1.113638	0.799259	-0.401200	-0.121989	-0.896767	0.361561	0.727565	-1.273952	0.578526	1.085131	1.613056	1.185739	-0.696036	-1.365117	1.003036	-0.663010	-1.126929	2.078984	1.118746	-0.162434	-0.143250	-0.819917	-1.923410	1.046948	1.480959	-0.306256	-0.213694	-1.540409	0.020002	-0.049031	-1.382840	0.900035	-0.324257	0.468321	-2.423645	1.290549	-1.068068	1.617845	1.964387	-1.321108	-0.229022	0.465076	1.714105	0.736872	-0.439898	0.932810	-0.325190	-0.654056	-1.838820	-0.310628	-1.698057	-0.481174	-0.065238	0.741132	-1.635189	-1.186281	1.253034	0.381860	0.935256	1.207094	-1.082843	0.376500	2.347285	0.812132	0.574634	0.955511	0.214836	-2.317661	-0.012125	1.571436	-0.032031	0.745999	-1.659481	-1.713299	-0.319946	0.083739	2.290142	-0.813444	1.297994	0.197556	0.650934	-0.787510	0.033096	-0.370179	-0.960793	1.988460	-1.019376	0.425236	-1.167329	-0.981110	1.970562	-1.077482	-1.323519	1.969454	-0.015554	-0.186194	-0.039067	-2.280346	-0.447674	-1.741753	0.040573	2.002311	0.807248	0.663219	0.480357	-0.872713	2.250571	-0.509429	-1.187679	1.718126	-1.048139	-1.369462	0.472382	-1.613427	1.160343	0.637038
-0.594026	0.310748	-1.284001	-0.198804	0.556287	-0.824073	-0.202894	0.611193	-0.031517	0.861867	-0.000250	1.405064	-1.150140	-0.218478	0.835799	0.952803	-0.481656	-0.088981	-0.762088	0.315140	0.945519	-0.524756	0.938145	-0.594724	0.510465	-1.719073	-0.208472	-0.344396	0.742075	-0.898678	-0.726836	-0.030643	-0.305816	0.023529	0.609023	-0.985524	0.589740	-0.358007	0.761729	0.696273	0.003241	0.639933	0.038767	0.419331	-0.031492	0.731751	0.840372	-0.424093	-0.611458	0.490762	0.051865	0.071470	-0.449346	0.872529	-0.732377	0.195998	-1.889848	1.023205	1.029853	-0.784837	-0.157010	-0.282286	-0.141322	0.508021	-0.956790	1.284359	-1.143346	0.263110	0.417118	0.768432	0.883487	-0.289789	0.897087	0.020438	0.434975	-0.911951	0.056616	0.062360	-1.273268	-0.789360	-0.472428	0.462511	-0.496676	1.466233	-0.265686	-0.239724	0.047935	-0.452721	-0.911698	-0.344673	-0.184721	0.395362	2.439488	0.360328	-2.008536	-0.037192	-1.412971	-1.579824	-0.901072	1.205241	0.127640	0.600591	0.050911	1.577044	1.630708	-0.704133	1.227370	0.164787	0.646951	0.812473	-1.214723	-2.128950	0.279008	-0.593243	-0.850387	0.684368	-1.615993	-0.044499	0.221627	1.801546	0.239233	0.113062	-2.655972	-1.812237	-1.138409	0.004426	0.950853	1.047383	0.147647	-0.727747	0.135098	-0.524607	0.529028	0.382767	-1.510470	-0.539632	-1.457253	0.917931	0.174208	-0.939643	1.805580	-2.293917	-0.259826	0.776516	0.818348	-1.413652	-1.263615	-0.515228	-0.867834	-0.311516	1.622266	-0.059076	-1.860618	-2.038858	0.600991	1.364016	0.875655	0.829707	1.069542	-0.538624	0.291886	1.191469	0.494037	1.107071	0.060729	-1.061342	-0.548489	0.169896	0.592278	1.231821	-1.018556	-1.874316	-0.004834	0.928164	0.038861	0.353002	1.461541	-0.997464	-1.216433	1.187571	0.732098	-2.347610	-0.683468	2.030243	0.318421	-0.417272	-0.049719	0.662660	-2.229351	0.233169	-0.769033	1.463063	2.101745	-1.368439	-1.023153	-0.322689	2.029854	-0.375857	-1.740888	0.280553	-1.522710	-0.228488	-1.056172	-0.120684	0.787575	-0.132052	2.046357	0.692953	-0.843837	0.360808	0.882417	1.045461	0.630549	-0.615934	-0.352053	1.528256	1.216650	-1.580834	-0.452364	-1.541333	1.060799	0.368137	0.108900	1.508574	-0.058425	-0.944504	1.975189	0.845973	0.665490	1.215931	0.876498	-1.531319	0.595300	0.028585	0.244170	0.784925	-2.096024	-0.133692	-1.823755	-0.523596	1.999377	-0.484514	-0.431786	-1.422167	1.142468	0.802209	-0.403101	-0.125162	-0.898811	0.369461	0.735419	-1.263868	0.565117	1.062643	1.600348	1.153800	-0.676475	-1.322392	0.992049	-0.659247	-1.110686	2.090265	1.117420	-0.164002	-0.137208	-0.810414	-1.908463	1.026361	1.475590	-0.301628	-0.201185	-1.506454	0.023308	-0.069746	-1.396635	0.898550	-0.321041	0.458807	-2.401524	1.276833	-1.057797	1.608825	1.938019	-1.328212	-0.206769	0.444615	1.687612	0.718573	-0.368675	0.835106	-0.286241	-0.624337	-1.845404	-0.319550	-1.695545	-0.481918	-0.050178	0.714499	-1.569673	-1.136262	1.264719	0.407329	0.927483	1.213634	-1.064035	0.386473	2.354772	0.813427	0.585615	0.946103	0.223928	-2.323343	-0.001763	1.460192	-0.037822	0.709187	-1.628322	-1.686827	-0.328610	0.090202	2.304064	-0.793409	1.245475	0.175068	0.648287	-0.743189	0.060822	-0.361560	-0.969039	1.995539	-0.980789	0.416136	-1.129915	-0.965423	1.923772	-1.047241	-1.305594	1.955612	-0.024960	-0.172826	-0.026434	-2.278648	-0.459102	-1.714045	0.047632	2.004466	0.820873	0.658725	0.483284	-0.854071	2.254058	-0.493785	-1.169098	1.704180	-1.054054	-1.386431	0.476992	-1.579040	1.144814	0.617619
