     120
 i =        0, time =        0.000, E =     -1415.6081234726
 Al        -0.0161093884        0.0094153767       -0.0211462493
 Al         0.0037439024        0.0012910971       -0.0137281491
 Al        -0.0031687022        0.0117097589       -0.0021063708
 Al         0.0184958508        0.0047377658        0.0218050830
 Al        -0.0187784071       -0.0028574633        0.0211821241
 Al         0.0160482208       -0.0131941675       -0.0028844180
 Al        -0.0147654150        0.0144146811        0.0188334079
 Al        -0.0119765917        0.0256326203       -0.0111141653
 Al         0.0061128899       -0.0325189224        0.0048294312
 Al        -0.0097672718        0.0140085579       -0.0183332407
 Al        -0.0130708353       -0.0000583663       -0.0033323618
 Al        -0.0015747255        0.0105854451       -0.0166905097
 Al         0.0165704918       -0.0056673077        0.0125777665
 Al         0.0074829289        0.0015802235        0.0122152435
 Al        -0.0055521113        0.0106297674        0.0028824539
 Al         0.0144468390        0.0181233148       -0.0075778159
 Al        -0.0130876638        0.0130546352        0.0020556623
 Al        -0.0012373429       -0.0113410140        0.0177498542
 Al        -0.0099212896        0.0089671889       -0.0340865481
 Al         0.0202476156        0.0196464026       -0.0140242245
 Al         0.0006126773       -0.0066593164       -0.0028366176
 Al         0.0124909368       -0.0164325208        0.0223703501
 Al        -0.0241256519        0.0072451322        0.0064715077
 Al         0.0094820057        0.0209997560        0.0010280901
 Al         0.0115630500        0.0011079863        0.0094479422
 Al        -0.0191922066       -0.0060375425        0.0036030049
 Al        -0.0226214358       -0.0145654463       -0.0115563427
 Al         0.0092986069       -0.0100054760        0.0310877355
 Al        -0.0050223888       -0.0096675130        0.0032046809
 Al        -0.0054317226       -0.0199914530       -0.0034040505
 Cl        -0.0027761582        0.0078423533        0.0454541085
 Cl         0.0085711501       -0.0417762429       -0.0010603729
 Cl        -0.0279534797       -0.0290920193       -0.0167736182
 Cl         0.0258111284        0.0029194193        0.0123014929
 Cl        -0.0002411066        0.0305346007        0.0292564719
 Cl        -0.0158104908        0.0233417331        0.0029277902
 Cl         0.0124613219        0.0173105902       -0.0246881200
 Cl        -0.0400757571        0.0065526089       -0.0115130102
 Cl        -0.0160929473        0.0144326080       -0.0329790096
 Cl        -0.0017046424        0.0052336310        0.0331453906
 Cl         0.0050210323        0.0020470084       -0.0512002640
 Cl        -0.0369773820       -0.0239676862        0.0007658703
 Cl         0.0203507274        0.0205551648        0.0040226813
 Cl        -0.0130972045        0.0020157893       -0.0091820065
 Cl         0.0126320086        0.0073389387       -0.0378932884
 Cl        -0.0104693726       -0.0295987790        0.0181800195
 Cl         0.0034623998       -0.0171997871        0.0339988955
 Cl        -0.0410099497       -0.0049170339        0.0125347016
 Cl         0.0171272042       -0.0288229984       -0.0254754692
 Cl        -0.0102099690       -0.0172095700       -0.0064219573
 Cl         0.0298238662       -0.0011551078       -0.0375113730
 Cl        -0.0368963506        0.0105361327        0.0251632067
 Cl         0.0193016435        0.0184148542        0.0223615999
 Cl        -0.0116013523        0.0064275162        0.0266272950
 Cl         0.0121170503        0.0213134619        0.0020669002
 Cl        -0.0236313418       -0.0140868649        0.0061305233
 Cl         0.0117923795        0.0245197753       -0.0186621313
 Cl        -0.0403157293       -0.0010146808        0.0198731887
 Cl         0.0008331130        0.0059759600        0.0265735252
 Cl        -0.0191659446       -0.0235761839        0.0224540320
 Cl         0.0143428758       -0.0445286002       -0.0137490631
 Cl         0.0388614357        0.0063411384       -0.0084859116
 Cl        -0.0019035264        0.0123723643       -0.0435938771
 Cl         0.0047288316       -0.0151389451        0.0291381075
 Cl         0.0414823487       -0.0273790153       -0.0202775726
 Cl        -0.0061330730        0.0336481008       -0.0073491560
 Cl        -0.0344823591        0.0058255291       -0.0302809691
 Cl        -0.0038588627       -0.0254408194       -0.0025605880
 Cl         0.0157878978       -0.0035273330        0.0394562482
 Cl         0.0159760932       -0.0172505668        0.0073323807
 Cl         0.0163720364        0.0223243106        0.0143308056
 Cl        -0.0110631609       -0.0079301979        0.0280187218
 Cl         0.0243137752       -0.0305802473       -0.0099555183
 Cl        -0.0268031302        0.0189465977        0.0059559450
 Cl         0.0037878424        0.0295642319       -0.0020934668
 Cl        -0.0178410303        0.0373639769        0.0160663129
 Cl         0.0124901073        0.0240188764        0.0172188214
 Cl        -0.0295569561        0.0117381392       -0.0001186598
 Cl         0.0041801787        0.0133027990       -0.0366647649
 Cl        -0.0024286860       -0.0371700120       -0.0108207586
 Cl         0.0420946784       -0.0106432892       -0.0095844817
 Cl        -0.0269257575        0.0196784727        0.0153092753
 Cl        -0.0078162927       -0.0022342406       -0.0174470910
 Cl         0.0065702542        0.0135937119       -0.0250956811
 Cl         0.0118822782        0.0221010352        0.0316620925
 Cl         0.0244107762       -0.0143570879       -0.0285087973
 Cl         0.0198162293       -0.0128827932       -0.0225281872
 Cl         0.0391752158        0.0215365126       -0.0030489460
 Cl        -0.0031009882       -0.0163145724       -0.0376553312
 Cl         0.0212982101        0.0287669730       -0.0060922139
 Cl        -0.0048242390       -0.0316464234        0.0002604914
 Cl         0.0005035725       -0.0258417403        0.0173965452
 Cl        -0.0064433112        0.0094993038       -0.0477706577
 Cl         0.0255366261       -0.0211366376        0.0316230605
 Cl         0.0393606650       -0.0250421803       -0.0056759101
 Cl         0.0100872782        0.0345032297        0.0152563372
 Cl        -0.0121694047        0.0230742841       -0.0083329315
 Cl        -0.0142775012       -0.0350320155       -0.0054786913
 Cl        -0.0328746170       -0.0092317517       -0.0021527588
 Cl         0.0155448336       -0.0346422266       -0.0253635492
 Cl         0.0231782854        0.0057362889        0.0184321739
 Cl         0.0226884687       -0.0219085270        0.0066252702
 Cl         0.0446797609        0.0155205068        0.0103953170
 Cl         0.0188688600        0.0036197093       -0.0443170747
 Cl        -0.0008194364        0.0359566105       -0.0002895340
 Cl         0.0163825223       -0.0335423488       -0.0342901030
 Cl        -0.0056625449        0.0012705990        0.0429858136
 Cl        -0.0167543055        0.0278156975        0.0048553041
 Cl         0.0126873625       -0.0177004273       -0.0009076942
 Cl        -0.0076132517       -0.0179159613        0.0376714469
 Cl        -0.0217286372        0.0086804424       -0.0244998687
 Cl        -0.0197300576        0.0405195858       -0.0222819397
 Cl        -0.0264415294        0.0385811029        0.0002800035
 Cl        -0.0043235180       -0.0013962742       -0.0440307015
 Cl        -0.0079742695       -0.0350566463        0.0003245073
 Cl         0.0382338340        0.0146602437        0.0129393327
 Cl         0.0091012044       -0.0179293995        0.0432530530
 Cl        -0.0106515349       -0.0238161488        0.0335568376
 Cl        -0.0197904311       -0.0254050469        0.0086878713
 Cl        -0.0328983920        0.0230137822        0.0132703712
     120
 i =        1, time =        1.000, E =     -1415.6093357161
 Al        -0.0151639146        0.0086558116       -0.0222734802
 Al         0.0019603500        0.0035512397       -0.0143895472
 Al        -0.0033138814        0.0119071777       -0.0017466996
 Al         0.0182521294        0.0035817012        0.0234979109
 Al        -0.0197777460       -0.0032607923        0.0200550528
 Al         0.0167842706       -0.0123682650       -0.0026535849
 Al        -0.0148521837        0.0121994718        0.0188153571
 Al        -0.0116172348        0.0239782370       -0.0113208399
 Al         0.0070415144       -0.0329923514        0.0029153672
 Al        -0.0090819067        0.0142215421       -0.0181810313
 Al        -0.0134108973       -0.0001914196       -0.0040683751
 Al        -0.0011030335        0.0110130133       -0.0174833201
 Al         0.0154996064       -0.0060750490        0.0132054532
 Al         0.0091492030        0.0011707017        0.0122726738
 Al        -0.0040225845        0.0101253330        0.0020673857
 Al         0.0145828965        0.0178056642       -0.0078015316
 Al        -0.0129506278        0.0123003575        0.0017868109
 Al        -0.0006558247       -0.0108332911        0.0176475057
 Al        -0.0111307384        0.0076938635       -0.0349971825
 Al         0.0203037846        0.0198703017       -0.0144630496
 Al        -0.0003271535       -0.0065082439       -0.0028677287
 Al         0.0119403147       -0.0170799145        0.0232026202
 Al        -0.0238399318        0.0067627133        0.0068844486
 Al         0.0109845499        0.0203218121       -0.0005588792
 Al         0.0131734877        0.0008359459        0.0091648518
 Al        -0.0189926817       -0.0044699241        0.0031259142
 Al        -0.0233210639       -0.0148650574       -0.0110814083
 Al         0.0092878080       -0.0098676360        0.0306594613
 Al        -0.0050932095       -0.0084981046        0.0026746403
 Al        -0.0062256045       -0.0195757950       -0.0042561944
 Cl        -0.0029968439        0.0078173328        0.0461245543
 Cl         0.0082307069       -0.0413070682       -0.0010076861
 Cl        -0.0279359735       -0.0295982659       -0.0170006863
 Cl         0.0252602857        0.0028093741        0.0121711713
 Cl         0.0000764137        0.0306389246        0.0299164934
 Cl        -0.0153289207        0.0235239700        0.0030029316
 Cl         0.0125215944        0.0169753887       -0.0244924974
 Cl        -0.0405800452        0.0063062861       -0.0115505623
 Cl        -0.0162756297        0.0141701732       -0.0326862998
 Cl        -0.0015060811        0.0049896896        0.0337817105
 Cl         0.0049237708        0.0020846825       -0.0514229259
 Cl        -0.0367210562       -0.0236177163        0.0005924055
 Cl         0.0199463429        0.0205598043        0.0037464953
 Cl        -0.0133614677        0.0021796049       -0.0094644608
 Cl         0.0121478470        0.0074236303       -0.0361126717
 Cl        -0.0105247109       -0.0294501426        0.0181643974
 Cl         0.0034598832       -0.0175106149        0.0343643354
 Cl        -0.0421467221       -0.0049802925        0.0132270167
 Cl         0.0169050797       -0.0286196218       -0.0253580754
 Cl        -0.0101969790       -0.0171603946       -0.0063498674
 Cl         0.0303537640       -0.0011440295       -0.0372836559
 Cl        -0.0377578011        0.0108657451        0.0256029942
 Cl         0.0188220286        0.0179252709        0.0220492803
 Cl        -0.0113874023        0.0062637456        0.0258623536
 Cl         0.0115458828        0.0214382789        0.0018653046
 Cl        -0.0229224836       -0.0132712750        0.0054404385
 Cl         0.0117494423        0.0244378830       -0.0189839386
 Cl        -0.0395247097       -0.0007745955        0.0195044181
 Cl         0.0008492780        0.0061997808        0.0271041716
 Cl        -0.0192779266       -0.0236533198        0.0226878879
 Cl         0.0143547235       -0.0449337098       -0.0136606108
 Cl         0.0391441813        0.0063359552       -0.0084041843
 Cl        -0.0016910967        0.0125482180       -0.0436991025
 Cl         0.0046669118       -0.0151252178        0.0289933115
 Cl         0.0414123248       -0.0272391886       -0.0202246349
 Cl        -0.0061869200        0.0353331221       -0.0073791454
 Cl        -0.0344680129        0.0057469846       -0.0302211608
 Cl        -0.0039737961       -0.0243187368       -0.0025175949
 Cl         0.0157217344       -0.0032971644        0.0396546476
 Cl         0.0154716919       -0.0171386348        0.0072995207
 Cl         0.0166581551        0.0219174610        0.0139127857
 Cl        -0.0113379159       -0.0076749959        0.0285524347
 Cl         0.0241986768       -0.0306804182       -0.0096889440
 Cl        -0.0277570053        0.0194890245        0.0062860946
 Cl         0.0034036737        0.0295832304       -0.0018865090
 Cl        -0.0180406066        0.0377650003        0.0162122009
 Cl         0.0126247651        0.0240414076        0.0172879316
 Cl        -0.0297368907        0.0117677944        0.0000534001
 Cl         0.0043476432        0.0138858946       -0.0379556740
 Cl        -0.0024869768       -0.0369025173       -0.0107214654
 Cl         0.0414881758       -0.0103930172       -0.0093262374
 Cl        -0.0271938575        0.0203860258        0.0153965553
 Cl        -0.0077904061       -0.0022727014       -0.0174220659
 Cl         0.0067234815        0.0137932459       -0.0250317557
 Cl         0.0116965102        0.0218204040        0.0316365775
 Cl         0.0240409096       -0.0141318094       -0.0279382630
 Cl         0.0197664012       -0.0129235529       -0.0223789875
 Cl         0.0396976085        0.0216617750       -0.0030887682
 Cl        -0.0030026318       -0.0162215268       -0.0376721904
 Cl         0.0210278749        0.0288324109       -0.0060681576
 Cl        -0.0046111886       -0.0311284611        0.0002926995
 Cl        -0.0000227091       -0.0262312202        0.0174630753
 Cl        -0.0064044181        0.0093953331       -0.0476595287
 Cl         0.0254489425       -0.0210527325        0.0316283573
 Cl         0.0390352774       -0.0252946104       -0.0052817470
 Cl         0.0097638540        0.0341741107        0.0149700726
 Cl        -0.0110588978        0.0215613549       -0.0077082291
 Cl        -0.0137874165       -0.0353292788       -0.0056740554
 Cl        -0.0329682085       -0.0092851678       -0.0018591705
 Cl         0.0152292790       -0.0338413104       -0.0246917305
 Cl         0.0236602450        0.0063333997        0.0183847477
 Cl         0.0230141887       -0.0216650016        0.0068748807
 Cl         0.0450938549        0.0156455319        0.0106782801
 Cl         0.0188173780        0.0038100241       -0.0446390867
 Cl        -0.0006271305        0.0343323531       -0.0003997565
 Cl         0.0158009169       -0.0332023653       -0.0340528755
 Cl        -0.0058583916        0.0013865415        0.0436312995
 Cl        -0.0164789931        0.0270367704        0.0045635956
 Cl         0.0126986032       -0.0169430458       -0.0004044246
 Cl        -0.0074921763       -0.0182191400        0.0381023766
 Cl        -0.0211518158        0.0085640565       -0.0239642119
 Cl        -0.0195523180        0.0398676205       -0.0219047135
 Cl        -0.0262619108        0.0385703431        0.0000805798
 Cl        -0.0040999414       -0.0012012688       -0.0442032629
 Cl        -0.0082280125       -0.0347318852        0.0004865321
 Cl         0.0385673753        0.0150468127        0.0129620795
 Cl         0.0091939543       -0.0176326785        0.0434755635
 Cl        -0.0104300636       -0.0236339514        0.0336129368
 Cl        -0.0200289147       -0.0258533613        0.0088928713
 Cl        -0.0324658858        0.0229353999        0.0130157499
     120
 i =        2, time =        2.000, E =     -1415.6137931317
 Al        -0.0141034262        0.0078412604       -0.0232792693
 Al         0.0000955384        0.0058926723       -0.0149909568
 Al        -0.0034911363        0.0120047833       -0.0013818245
 Al         0.0178929821        0.0024098564        0.0249754593
 Al        -0.0207084977       -0.0036280190        0.0188531423
 Al         0.0174385705       -0.0114548390       -0.0023839714
 Al        -0.0148932526        0.0100808231        0.0187453623
 Al        -0.0112010024        0.0222036371       -0.0114611902
 Al         0.0079822584       -0.0332987540        0.0008110068
 Al        -0.0083446043        0.0143696721       -0.0179895862
 Al        -0.0136974841       -0.0003212203       -0.0047479603
 Al        -0.0006044998        0.0113634112       -0.0181555759
 Al         0.0143025852       -0.0064230124        0.0137799832
 Al         0.0107093355        0.0007816961        0.0123323701
 Al        -0.0024595152        0.0095469785        0.0012099893
 Al         0.0145982875        0.0174043441       -0.0079836989
 Al        -0.0127070163        0.0114671139        0.0015240494
 Al        -0.0000215617       -0.0102302791        0.0174894322
 Al        -0.0122562410        0.0064067551       -0.0357558592
 Al         0.0202655496        0.0200091466       -0.0148147249
 Al        -0.0012469995       -0.0062650430       -0.0028668211
 Al         0.0113236359       -0.0176632717        0.0239177945
 Al        -0.0234269789        0.0062520475        0.0072933223
 Al         0.0123801669        0.0194701394       -0.0021931064
 Al         0.0146941077        0.0006300253        0.0089045680
 Al        -0.0186834573       -0.0027586367        0.0025722450
 Al        -0.0239070176       -0.0150935365       -0.0105297354
 Al         0.0092325241       -0.0097646042        0.0300922262
 Al        -0.0051369742       -0.0072835103        0.0021219292
 Al        -0.0070574484       -0.0190603459       -0.0050954898
 Cl        -0.0032062703        0.0077827781        0.0466756595
 Cl         0.0078587805       -0.0407110700       -0.0009364244
 Cl        -0.0278513590       -0.0300399193       -0.0172016236
 Cl         0.0246787537        0.0026996166        0.0120234985
 Cl         0.0003882431        0.0306987796        0.0305494295
 Cl        -0.0148147116        0.0236750234        0.0030749766
 Cl         0.0125639829        0.0166140772       -0.0242524534
 Cl        -0.0409664375        0.0060351640       -0.0115664674
 Cl        -0.0164128800        0.0138944545       -0.0323308249
 Cl        -0.0012999958        0.0047536153        0.0343076366
 Cl         0.0048291594        0.0021227378       -0.0515734356
 Cl        -0.0363534384       -0.0232000302        0.0004213085
 Cl         0.0195035055        0.0205313373        0.0034633185
 Cl        -0.0136315322        0.0023363508       -0.0097316068
 Cl         0.0116022052        0.0074711353       -0.0341181332
 Cl        -0.0105493645       -0.0291969064        0.0181071166
 Cl         0.0034468084       -0.0177950362        0.0346763518
 Cl        -0.0431181110       -0.0050237914        0.0138855196
 Cl         0.0166326735       -0.0283368037       -0.0251750596
 Cl        -0.0101598568       -0.0170875484       -0.0062641813
 Cl         0.0308182250       -0.0011392303       -0.0369848549
 Cl        -0.0385003667        0.0111670494        0.0259734270
 Cl         0.0182830618        0.0173814524        0.0216849624
 Cl        -0.0111316321        0.0060860274        0.0250359375
 Cl         0.0109389414        0.0215205880        0.0016509068
 Cl        -0.0221920005       -0.0124302527        0.0047391958
 Cl         0.0116872192        0.0243123555       -0.0192805712
 Cl        -0.0386319954       -0.0005408604        0.0190871661
 Cl         0.0008426922        0.0064244867        0.0275975541
 Cl        -0.0193554459       -0.0236939582        0.0228743697
 Cl         0.0143406214       -0.0452563034       -0.0135541718
 Cl         0.0393445639        0.0063095900       -0.0083151004
 Cl        -0.0014637948        0.0126937718       -0.0436980797
 Cl         0.0046136228       -0.0150891045        0.0288293009
 Cl         0.0412961958       -0.0270695198       -0.0201474548
 Cl        -0.0062284784        0.0368716416       -0.0073835789
 Cl        -0.0343614063        0.0056594508       -0.0300914096
 Cl        -0.0041097559       -0.0231335515       -0.0024689684
 Cl         0.0156236586       -0.0030601205        0.0397851169
 Cl         0.0148903324       -0.0169645238        0.0072371704
 Cl         0.0168852119        0.0214514251        0.0134330584
 Cl        -0.0115836272       -0.0074086136        0.0290178377
 Cl         0.0240503244       -0.0307403418       -0.0094065156
 Cl        -0.0286028421        0.0199483542        0.0065965642
 Cl         0.0029967537        0.0295543907       -0.0016573114
 Cl        -0.0181950512        0.0380724664        0.0163254595
 Cl         0.0127464624        0.0239895359        0.0172850108
 Cl        -0.0298386677        0.0117540544        0.0002233435
 Cl         0.0044962658        0.0144042636       -0.0390609283
 Cl        -0.0025356737       -0.0365338321       -0.0105838566
 Cl         0.0407657851       -0.0101094699       -0.0090469158
 Cl        -0.0274057043        0.0210455224        0.0154740627
 Cl        -0.0077876799       -0.0023192111       -0.0174225973
 Cl         0.0068772454        0.0139784090       -0.0249248439
 Cl         0.0114863983        0.0214879087        0.0315403240
 Cl         0.0235941640       -0.0138611137       -0.0272886416
 Cl         0.0196657001       -0.0129288901       -0.0221764423
 Cl         0.0401172410        0.0217356774       -0.0031254795
 Cl        -0.0028975859       -0.0160996526       -0.0375918529
 Cl         0.0207157164        0.0288462867       -0.0060234802
 Cl        -0.0043912924       -0.0305735550        0.0003357707
 Cl        -0.0005098832       -0.0265839338        0.0175008443
 Cl        -0.0063593662        0.0092653842       -0.0474510591
 Cl         0.0253057220       -0.0209334203        0.0315793033
 Cl         0.0386512957       -0.0255133432       -0.0048743652
 Cl         0.0094162542        0.0337852942        0.0146623312
 Cl        -0.0098555499        0.0199199554       -0.0070402283
 Cl        -0.0132681970       -0.0355727653       -0.0058610402
 Cl        -0.0330218344       -0.0093295862       -0.0015634329
 Cl         0.0148555927       -0.0329009291       -0.0239318967
 Cl         0.0240569994        0.0068973890        0.0183032241
 Cl         0.0232789387       -0.0213822898        0.0071082566
 Cl         0.0454156940        0.0157361618        0.0109382951
 Cl         0.0187226555        0.0039963263       -0.0448936667
 Cl        -0.0004331722        0.0325397516       -0.0005107220
 Cl         0.0151768452       -0.0327819950       -0.0337325692
 Cl        -0.0060447910        0.0015059328        0.0441480560
 Cl        -0.0161686499        0.0261797053        0.0042273350
 Cl         0.0126875918       -0.0161441711        0.0001138765
 Cl        -0.0073533750       -0.0184755843        0.0384350147
 Cl        -0.0205161237        0.0084268310       -0.0233637585
 Cl        -0.0193403958        0.0391434825       -0.0214679810
 Cl        -0.0260306662        0.0384818780       -0.0001137307
 Cl        -0.0038686772       -0.0009895853       -0.0443198265
 Cl        -0.0084719505       -0.0343384377        0.0006420748
 Cl         0.0388046510        0.0153943122        0.0129488728
 Cl         0.0092727284       -0.0173132015        0.0436458896
 Cl        -0.0101826356       -0.0233958093        0.0335682255
 Cl        -0.0202272639       -0.0262636400        0.0090593056
 Cl        -0.0319627027        0.0227890576        0.0127235248
     120
 i =        3, time =        3.000, E =     -1415.6214453516
 Al        -0.0128967999        0.0069693774       -0.0241758699
 Al        -0.0018512137        0.0083227369       -0.0155384243
 Al        -0.0037027139        0.0119989344       -0.0010005328
 Al         0.0173976954        0.0012165146        0.0262459779
 Al        -0.0215729540       -0.0039564904        0.0175879677
 Al         0.0180199475       -0.0104505131       -0.0020786767
 Al        -0.0148861749        0.0080611740        0.0185956219
 Al        -0.0107306463        0.0202930599       -0.0115401391
 Al         0.0089423071       -0.0334433050       -0.0015112380
 Al        -0.0075479513        0.0144384340       -0.0177523937
 Al        -0.0139401830       -0.0004592598       -0.0053765710
 Al        -0.0000839563        0.0116386014       -0.0187159648
 Al         0.0129532373       -0.0067224026        0.0143172128
 Al         0.0121723127        0.0004138072        0.0123895270
 Al        -0.0008671879        0.0088928662        0.0003241552
 Al         0.0144788106        0.0169181099       -0.0081385552
 Al        -0.0123540238        0.0105462262        0.0012683976
 Al         0.0006597091       -0.0095310041        0.0172605557
 Al        -0.0132901613        0.0051140027       -0.0363421902
 Al         0.0201268115        0.0200590143       -0.0150831637
 Al        -0.0021550519       -0.0059266919       -0.0028263424
 Al         0.0106336484       -0.0181758491        0.0245121958
 Al        -0.0228915534        0.0056980797        0.0077026628
 Al         0.0136931724        0.0184255878       -0.0038809467
 Al         0.0161185507        0.0004853251        0.0086730349
 Al        -0.0182626134       -0.0008992855        0.0019328846
 Al        -0.0243841101       -0.0152568398       -0.0098991729
 Al         0.0091383892       -0.0096951107        0.0293728990
 Al        -0.0051621229       -0.0060009614        0.0015388728
 Al        -0.0079159909       -0.0184415617       -0.0059062204
 Cl        -0.0034046734        0.0077393422        0.0471119977
 Cl         0.0074509769       -0.0399631597       -0.0008423257
 Cl        -0.0276965825       -0.0304129397       -0.0173744572
 Cl         0.0240677242        0.0025904648        0.0118578093
 Cl         0.0006934172        0.0307075184        0.0311473377
 Cl        -0.0142694439        0.0237909277        0.0031423787
 Cl         0.0125823904        0.0162205564       -0.0239606290
 Cl        -0.0412392189        0.0057410380       -0.0115615587
 Cl        -0.0165005368        0.0136073812       -0.0319116528
 Cl        -0.0010865347        0.0045270167        0.0347263853
 Cl         0.0047380044        0.0021606426       -0.0516454082
 Cl        -0.0358625816       -0.0227076070        0.0002525104
 Cl         0.0190180720        0.0204676370        0.0031719735
 Cl        -0.0138955539        0.0024850374       -0.0099766965
 Cl         0.0109823286        0.0074777470       -0.0318719877
 Cl        -0.0105384061       -0.0288249954        0.0180017736
 Cl         0.0034224640       -0.0180477968        0.0349242738
 Cl        -0.0439340817       -0.0050475964        0.0145097162
 Cl         0.0163014390       -0.0279589282       -0.0249120452
 Cl        -0.0101030176       -0.0169948825       -0.0061686317
 Cl         0.0312175178       -0.0011409035       -0.0366186997
 Cl        -0.0391272139        0.0114401099        0.0262781515
 Cl         0.0176868476        0.0167859123        0.0212703724
 Cl        -0.0108258990        0.0058893042        0.0241356348
 Cl         0.0102908829        0.0215504731        0.0014224525
 Cl        -0.0214267280       -0.0115566469        0.0040231677
 Cl         0.0116108223        0.0241543719       -0.0195566189
 Cl        -0.0376017955       -0.0003136338        0.0185993579
 Cl         0.0008101433        0.0066454213        0.0280325314
 Cl        -0.0193936058       -0.0236931916        0.0230086311
 Cl         0.0143003993       -0.0454938868       -0.0134298208
 Cl         0.0394558888        0.0062613452       -0.0082181165
 Cl        -0.0012217430        0.0128061255       -0.0435808472
 Cl         0.0045696085       -0.0150346466        0.0286525173
 Cl         0.0411139445       -0.0268583979       -0.0200369135
 Cl        -0.0062561401        0.0382437571       -0.0073590336
 Cl        -0.0341582655        0.0055627643       -0.0298891675
 Cl        -0.0042653685       -0.0218689978       -0.0024105510
 Cl         0.0154862077       -0.0028166115        0.0398260026
 Cl         0.0142250393       -0.0167219180        0.0071427454
 Cl         0.0170519214        0.0209210994        0.0128837663
 Cl        -0.0117957670       -0.0071317003        0.0294049098
 Cl         0.0238728322       -0.0307629870       -0.0091098552
 Cl        -0.0293393453        0.0203259886        0.0068869719
 Cl         0.0025681920        0.0294713216       -0.0014073408
 Cl        -0.0183028974        0.0382848271        0.0164044596
 Cl         0.0128511932        0.0238537771        0.0172007996
 Cl        -0.0298494595        0.0116880749        0.0003910574
 Cl         0.0046287931        0.0148622026       -0.0399913152
 Cl        -0.0025732152       -0.0360553351       -0.0104042400
 Cl         0.0398941615       -0.0097852932       -0.0087365158
 Cl        -0.0275613274        0.0216568367        0.0155431347
 Cl        -0.0078021126       -0.0023723209       -0.0174393665
 Cl         0.0070312542        0.0141489129       -0.0247744481
 Cl         0.0112505488        0.0211024672        0.0313689947
 Cl         0.0230589830       -0.0135357637       -0.0265473298
 Cl         0.0195059671       -0.0128935067       -0.0219153008
 Cl         0.0404298470        0.0217561779       -0.0031588426
 Cl        -0.0027857680       -0.0159448717       -0.0374044115
 Cl         0.0203599166        0.0288000969       -0.0059557336
 Cl        -0.0041556915       -0.0299562303        0.0003889685
 Cl        -0.0009535095       -0.0268919932        0.0175029236
 Cl        -0.0063058057        0.0091074101       -0.0471324507
 Cl         0.0250972219       -0.0207706425        0.0314621129
 Cl         0.0382012871       -0.0256914955       -0.0044537697
 Cl         0.0090443065        0.0333340727        0.0143299039
 Cl        -0.0085546688        0.0181402831       -0.0063239374